2430
Time=5000.00000000 pbc="T T T" Lattice="22.65261009 0.00000000 0.00000000 0.00000000 19.19794632 0.00000000 0.00000000 0.00000000 73.53286915" energy=-10915.44254684 virial="-71.75951952 -8.67815186 -6.77525881 -8.67815186 -60.37454599 16.86455437 -6.77525881 16.86455437 -35.39198011" stress="-0.00027954 -0.00027138 -0.00021188 -0.00027138 0.00007649 0.00052739 -0.00021188 0.00052739 0.00085774" Properties=species:S:1:pos:R:3:forces:R:3:energy_atom:R:1
Mg 4.13618624 6.30252449 12.89109211 0.03963245 -0.08164151 0.35983626 -1.40901184
Mg 7.41188120 6.23375700 12.57479898 -0.37135633 0.13491684 0.02335205 -1.33103180
Mg 3.95257663 6.20618609 16.35249052 -0.13588849 0.36130923 -0.53520910 -1.45531082
Mg 2.33521213 4.43266790 11.09367350 -0.04376536 0.16716671 0.12165552 -1.60654831
Mg 6.27761037 4.78595796 14.91733056 -0.11485147 -0.15092134 0.12730591 -1.43690109
Mg 2.66005905 4.74706767 18.49048021 -0.35082425 -0.19265879 1.00766206 -1.38980484
Mg 1.78646577 4.38808106 14.27608623 0.16415150 0.59583826 0.06289241 -1.39507675
Mg 5.64042118 4.79877046 18.40950650 0.55995780 -0.04485134 -0.54665310 -1.40683365
Mg 2.16680746 4.93724312 22.13309808 0.31658950 -0.16646209 -0.27447742 -1.43114471
Mg 0.72646713 3.19075534 16.76262851 -0.33500812 -0.59989645 0.19097260 -1.43055725
Mg 4.61156631 3.17489655 20.49257276 -0.56364167 -0.22712352 0.50022262 -1.43838501
Mg 1.44235451 3.04266730 24.84152632 -0.03114823 0.29423563 -0.19395501 -1.25932693
Mg 4.10441755 9.46985362 13.43485164 0.10404849 0.12144739 -0.66157119 -1.30690765
Mg 7.24569693 9.64585357 12.48606850 -0.25538959 -0.04068064 0.25361828 -1.19610977
Mg 3.72460170 9.25464559 16.21585846 0.02519661 0.36835076 0.74336006 -1.39112091
Mg 2.07592893 7.94485010 11.21966044 -0.04504825 -0.19905759 0.19228163 -1.23186111
Mg 6.26702034 7.95435730 15.04543023 -0.03340783 -0.24229010 0.01229439 -1.42388916
Mg 2.77780737 7.88516887 18.81565430 -0.49797991 0.09691911 0.09721777 -1.45211029
Mg 1.63383496 7.87682039 14.49676243 0.12595023 -0.00280519 -0.23145397 -1.45241928
Mg 5.78892026 7.95233492 18.43104965 -0.00595512 0.53889046 -0.40230522 -1.44319534
Mg 2.20192174 8.20543873 22.22078767 -0.15442229 -0.28475129 -0.28379531 -1.45303345
Mg 0.73162685 6.12374728 16.76656499 -0.18281759 0.58134215 -0.12902852 -1.43306351
Mg 4.63189315 6.36099923 20.60192002 -0.51028411 0.26552890 0.29682611 -1.37622452
Mg 1.41998014 6.27946179 24.64489142 0.04189136 0.22536153 0.02456849 -1.24633026
Mg 4.17277778 2.96327438 13.29997364 0.45895308 0.24789289 -0.31434412 -1.35095215
Mg 7.46656229 3.00070031 12.60081120 -0.28021664 0.23097317 -0.17222277 -1.31002808
Mg 3.81917438 3.19108835 16.29938838 0.24567649 -0.47386771 -0.09508214 -1.47624207
Mg 2.14856109 1.42205842 11.11010534 0.10073763 -0.73735681 -0.12839276 -2.24216461
Mg 6.15559027 1.24474536 15.10842600 0.16162078 0.58642126 -0.22118601 -1.42884064
Mg 2.58504896 1.39856971 18.60348050 0.03830274 0.60146254 0.35786651 -1.43535614
Mg 1.75256031 1.44792450 14.18304080 -0.04051027 -0.39675725 0.43752418 -1.44525146
Mg 5.64808383 1.34420874 18.26080927 -0.14942584 0.33068819 -0.17339738 -1.46517181
Mg 2.28854832 1.79966872 22.17309812 -0.09606403 -0.16649885 -0.37688399 -1.45407867
Mg 0.58202048 9.51946027 16.97033461 0.08678968 -0.11835720 0.31295266 -1.49451828
Mg 4.78109937 9.62154438 21.01842461 -0.38518668 -0.01290928 -0.07397801 -1.47136688
Mg 0.91620875 9.47075078 24.78627920 -0.31596410 0.11841937 -0.28024118 -1.37213135
Mg 0.20640404 2.97485850 20.15415531 0.03669948 0.48594581 -0.12136815 -1.46201324
Mg 4.46261954 3.28390257 23.92535472 -0.34503010 0.47290483 0.09058706 -1.21696091
Mg 6.43857438 1.62010763 22.61351995 0.28527195 -0.03965462 -0.34479661 -1.35865784
Mg 0.22062646 6.37187219 20.13604438 0.13221927 0.03099278 0.14886152 -1.45780563
Mg 4.70113543 6.64048147 23.62183859 -0.78860560 0.04681870 0.49497791 -1.16735840
Mg 6.42271345 4.88527707 22.25296660 0.70177555 -0.61210892 0.32383621 -1.30274963
Mg 0.05498772 9.68252808 20.31964020 0.19346785 -0.50492168 -0.06909938 -1.44331741
Mg 3.86752172 9.67061408 24.32883856 0.34480232 0.04327291 -0.22802447 -1.40017700
Mg 6.81656223 8.21845336 22.52588839 0.19591111 0.11817861 0.44476047 -1.29243851
Mg 11.79146761 6.16240717 13.24384308 -0.00240570 0.65187778 -0.08597917 -1.29224014
Mg 14.68809078 6.36566668 12.47183469 0.04979888 0.18664842 0.22645720 -1.32046890
Mg 11.44778662 6.43730865 16.35178041 -0.24641134 -0.11840611 0.12816544 -1.50132751
Mg 9.78652455 5.03493326 11.25812678 0.02274719 -0.39611274 -0.38855863 -1.68811035
Mg 13.97034786 4.82747495 15.20581336 -0.28501448 -0.12158248 -0.12131709 -1.49160385
Mg 10.00468176 4.60144051 18.67600865 -0.02462607 0.43379386 0.00855732 -1.46756744
Mg 9.51183378 4.75299193 14.40043693 -0.77505761 0.00400065 0.25629745 -1.43010330
Mg 13.20024347 4.55335386 18.34765100 0.04762355 0.53734911 -0.07600488 -1.48656845
Mg 9.74707166 4.86006128 21.71501071 -0.14972240 -0.29116315 0.21087532 -1.40292740
Mg 7.83156036 3.13104526 16.92266502 0.28211739 -0.08227783 -0.27234790 -1.46211624
Mg 11.75659316 2.97782710 20.60390357 0.29590313 0.18085756 0.00660028 -1.39049530
Mg 8.42958696 3.12001162 24.27078919 0.02987690 0.37594543 -0.08031797 -1.30451584
Mg 11.74355699 9.40891576 13.41285139 -0.15953642 -0.01538346 -0.41198789 -1.33464432
Mg 14.74763972 9.54251624 12.14079024 0.05409862 0.15509059 0.39688326 -1.30363083
Mg 11.55374725 9.65072864 16.55754929 -0.07641595 -0.36598943 -0.04019022 -1.40117264
Mg 9.47554137 8.09061437 11.59754165 0.59582296 0.06614749 -0.17729199 -1.10762024
Mg 13.67437799 7.98922516 15.09989902 0.52485917 -0.20396340 -0.23022392 -1.41584778
Mg 10.33210650 7.82007326 18.92265139 -0.18216537 0.07483287 -0.24104968 -1.45538330
Mg 9.24467623 7.83006979 14.59568045 0.21120645 0.15079515 -0.03619537 -1.47466660
Mg 13.50485188 8.01385527 18.12488326 -0.38793628 0.12849362 0.41912401 -1.41753769
Mg 9.96853302 7.90936794 21.91199693 -0.20541386 0.28069292 0.36109758 -1.39678192
Mg 7.96857188 6.42890378 17.13813900 0.37079882 -0.26844895 -0.23745563 -1.46601105
Mg 12.16998430 6.46510816 20.70449201 0.13672300 -0.53055792 -0.22530043 -1.39114761
Mg 8.65173588 6.37296746 24.03433962 0.00244248 -0.18536944 0.34081592 -1.23606873
Mg 11.75655216 3.28233931 13.30293327 0.18185175 -0.42551975 -0.29256040 -1.26838684
Mg 14.74022070 3.10424306 12.55699180 -0.03027045 -0.09834210 -0.03368642 -1.23691177
Mg 11.33294678 3.29292490 16.28651066 -0.20489764 -0.08350511 -0.04226412 -1.42984390
Mg 10.08390280 1.55104728 11.45951511 -0.14178155 -0.04532250 -0.61593530 -1.02949524
Mg 13.69111663 1.74802203 15.07954242 -0.16357214 -0.48007404 0.37437283 -1.42733002
Mg 9.89863734 1.60704144 18.55483468 -0.23512741 -0.11891266 0.57498854 -1.39240265
Mg 9.33438549 1.47858666 14.16728177 0.04071942 0.14806763 1.17196926 -1.34653854
Mg 12.86899598 1.55940393 18.21777135 0.62072380 -0.51683297 0.00578855 -1.41144943
Mg 9.66576643 1.36522959 22.13542854 -0.42311902 -0.09045212 -0.15488246 -1.44596481
Mg 8.69782024 9.51604405 17.09981195 -0.93702673 0.04305346 -0.16155490 -1.40819168
Mg 12.09213254 9.66533044 20.78280415 0.63561575 0.00093060 -0.32371933 -1.46681976
Mg 8.88891391 9.55788610 24.79873780 -0.43769319 0.06114732 -0.24252290 -1.88217163
Mg 7.59704047 3.00867537 20.05032590 0.31885348 0.21009163 0.17176270 -1.49600220
Mg 11.55384545 3.27712458 23.50699868 0.06668360 0.02127077 0.44344999 -1.35675430
Mg 13.97300684 1.63395960 22.94379057 -0.12096730 -0.34720528 -0.12558182 -1.36036301
Mg 7.76079880 6.52441605 20.30868081 0.07418033 -0.19417406 -0.56339114 -1.43589783
Mg 11.97051458 6.32325406 24.15969732 -0.26317595 0.01142526 -0.31961811 -1.45148468
Mg 14.13885334 4.88521856 22.30193512 -0.05646153 -0.38129980 0.23670766 -1.41399002
Mg 7.85512529 9.54727228 20.15900313 0.05874912 0.34758545 -0.23658680 -1.46345901
Mg 11.69433054 9.48972338 23.92251869 0.37597406 -0.56327844 -0.01830208 -1.37920761
Mg 14.00157725 7.78999270 22.53669861 0.30387722 0.76361609 -0.07654801 -1.36012650
Mg 19.33240227 6.06061315 12.83486377 -0.13012646 0.36762279 -0.03739298 -1.30410385
Mg 0.00683622 6.06498215 12.69055576 -0.25242566 0.38187482 -0.25526761 -1.23144913
Mg 18.86672682 6.21557126 16.10224289 -0.21599145 0.34078124 0.27653132 -1.43972397
Mg 16.53517569 4.71679930 10.96886937 0.81579798 -0.08566103 0.08180751 -1.32151413
Mg 21.09247823 4.55985399 14.81932546 0.28159729 0.06590066 0.45460400 -1.44535065
Mg 17.96652123 4.53759261 18.83196306 -0.05285713 0.60938187 0.18496321 -1.38246918
Mg 16.90382742 4.70797679 14.29917085 -0.30846098 0.08231548 -0.07240671 -1.46043396
Mg 21.05226066 4.86861220 18.15527531 -0.32954524 -0.52724337 0.00413735 -1.45712280
Mg 17.19808976 4.52402329 21.74030656 -0.22411662 -0.02805636 0.17058669 -1.45035934
Mg 15.84936379 3.21947401 17.32794322 -0.48903421 -0.27281138 -0.49541865 -1.43759918
Mg 19.77228332 3.06083327 20.94019235 0.19400814 -0.10926582 -0.23817127 -1.45067978
Mg 15.95757101 3.40553721 24.36336634 0.10220717 0.11175493 0.26344190 -1.15809631
Mg 19.22826060 9.51409322 13.19725803 -0.21880287 -0.07321663 -0.17376492 -1.30693436
Mg 22.11514416 9.42069325 12.79621032 0.59825201 -0.14286987 -0.31001566 -1.22019577
Mg 19.06224222 9.73489515 16.34135664 -0.81483148 -0.56227554 0.26111450 -1.39567566
Mg 17.25914506 7.93004549 11.07181503 -0.06056981 0.01897095 0.33871179 -1.25592422
Mg 21.02828699 7.92648992 15.09068043 0.51526222 -0.44761932 -0.03721894 -1.41210175
Mg 17.81239407 7.76494336 18.81759885 0.19070062 0.26881787 -0.02351650 -1.48944855
Mg 16.76844956 7.98734577 14.31627318 0.07239879 -0.14206870 -0.05478205 -1.48827744
Mg 20.91965177 7.87513225 18.18116735 -0.13641634 0.13393262 0.22975682 -1.46155548
Mg 17.17031771 7.54622557 21.96150429 0.14221922 0.59546950 0.08197315 -1.45428848
Mg 15.77116188 6.41299801 16.97230508 0.29085493 -0.25428920 -0.38256019 -1.42100143
Mg 19.74284916 6.18004052 20.88237103 0.07439421 0.00731347 -0.16010239 -1.46723175
Mg 15.93399300 6.63107797 24.56332407 -0.07782142 -0.75516494 0.07285395 -1.11012650
Mg 19.01315276 2.99312540 13.04742210 0.23719602 -0.20496861 0.15486924 -1.29126358
Mg 22.26852545 2.99549145 12.55594430 0.00430179 0.00158738 -0.20773380 -1.28765869
Mg 18.72798279 3.25903022 16.33851872 0.27721607 -0.60985150 -0.23867498 -1.41907883
Mg 17.37817306 1.21961724 11.28141677 -0.36360438 0.31710254 0.04637757 -1.12509155
Mg 21.26655551 1.38931434 15.32539055 -0.07170134 0.20859818 -0.70358155 -1.42952728
Mg 17.78384493 1.50072403 18.98024012 -0.16533706 -0.14498991 0.26970503 -1.45883560
Mg 16.50734046 1.43932351 14.43595314 0.60127062 0.29753207 0.15771907 -1.42255402
Mg 20.85354272 1.33154315 18.17300694 -0.13978647 0.47930968 0.44548552 -1.44977951
Mg 16.93268839 1.34607235 22.41949800 0.29660762 0.34745932 -0.96269634 -1.36850739
Mg 15.80630512 9.52498160 16.99561596 0.15142022 0.10529551 -0.08746052 -1.48656464
Mg 19.56175609 9.57864788 20.88005533 0.05876783 -0.40292286 -0.03537135 -1.45970154
Mg 16.06446794 9.46932442 24.43045011 0.12267638 0.26744492 -0.16494402 -1.08738327
Mg 14.83033337 2.80559628 20.24874647 0.49049520 -0.01112014 0.00288378 -1.43412781
Mg 19.10683147 3.19189591 23.86316268 -0.00312570 -0.36999916 0.09837111 -1.14682007
Mg 21.71833784 1.47547239 22.79547804 0.24848065 0.46625561 0.05086366 -1.37377167
Mg 15.25857313 6.47174543 19.83742436 0.13630938 -0.42670633 0.49332265 -1.41365433
Mg 18.99697405 6.07871291 24.05390709 -0.06289440 0.32341232 -0.10351395 -1.16529083
Mg 21.80133072 4.69774729 22.98785543 0.04359412 -0.11514398 -0.18199574 -1.37646484
Mg 15.44242386 9.75519422 20.21124970 -0.22529816 -0.51086281 0.04084167 -1.49014664
Mg 19.32047939 9.36533003 24.25726904 -0.39594488 0.19528166 -0.27280077 -1.33285141
Mg 21.35653370 7.78924012 22.80810251 0.70902500 0.14018872 -0.05145066 -1.35330963
Mg 4.22016477 15.92512760 12.93107864 0.06141039 -0.01575998 0.06798834 -1.34025955
Mg 7.16248741 15.62730597 12.62322670 0.25726656 0.48926240 -0.00292122 -1.29119110
Mg 3.66766197 15.88310545 16.40400539 0.26503072 -0.06989976 0.21935854 -1.44583130
Mg 2.22413817 13.98214145 11.36719090 -0.09137413 0.27961424 -0.39554107 -1.49608612
Mg 6.19372294 14.28486486 15.25848764 -0.20496993 -0.00099762 0.06534666 -1.48989487
Mg 2.45764411 14.47612943 19.12780320 -0.09555192 -0.18771091 -0.53148180 -1.44445801
Mg 2.01400393 14.53908884 14.47741852 -0.58243121 -1.02930556 -0.23385396 -1.37184906
Mg 5.47198620 14.33832274 18.39013331 0.19551579 -0.25578522 -0.49214612 -1.42929077
Mg 2.27039464 14.35055738 22.24125572 -0.13237155 0.00690083 -0.08239439 -1.42951584
Mg 0.59808119 12.74328801 17.09806181 0.04030937 0.02434538 -0.09134997 -1.48691559
Mg 4.58598650 12.71899415 20.91148393 -0.08523592 0.05006765 0.21575001 -1.47060013
Mg 0.97145520 12.85759551 24.77051815 -0.03496181 -0.32752996 0.01054248 -1.08294678
Mg 4.34057804 19.18505617 13.05145091 -0.11119755 -0.33043808 -0.18193241 -1.48970032
Mg 7.57331451 19.00951950 12.62442827 -0.48471065 -0.08301401 -0.26581332 -1.34502029
Mg 3.74605275 18.97934863 16.17022580 -0.17086818 0.31813683 0.16822053 -1.48249054
Mg 2.15577609 17.34598980 11.17745720 0.13073017 0.29552948 -0.01769912 -1.78935623
Mg 6.08950935 17.48240142 15.00936410 -0.02756552 -0.44749946 0.01936596 -1.46399689
Mg 2.50990284 17.73460166 18.83224183 0.12777547 -0.82562251 0.28931253 -1.42213058
Mg 1.98022275 17.34787721 14.35493899 -0.45539933 0.82808314 -0.16151166 -1.40024567
Mg 5.48867110 17.48908587 18.37826141 0.03802228 -0.01270279 -0.24474658 -1.47152328
Mg 2.15511062 17.52754387 22.04276573 0.37267615 0.16283910 0.18498957 -1.46662903
Mg 0.59277172 15.93415209 16.79174169 -0.10920550 -0.07787847 0.41476142 -1.46335602
Mg 4.49300595 15.75750991 20.73220791 0.07861909 0.66007316 0.66178631 -1.40689468
Mg 1.39113202 15.87988274 24.59817181 -0.18938877 0.32098428 0.11173129 -1.07785797
Mg 4.25766077 12.78554825 13.36145930 0.10757994 -0.31785302 -0.32788134 -1.37666321
Mg 7.36685391 12.67239837 12.74319584 -0.09740963 -0.13227597 0.12798326 -1.30518341
Mg 3.71194924 12.47856113 16.25069202 0.22623453 0.27356507 0.72263836 -1.42501068
Mg 2.03126782 10.93708616 11.49437754 0.05743916 0.01990034 0.18229136 -1.12392807
Mg 6.33091533 10.92691964 15.18652625 0.04553131 0.35669147 0.22966154 -1.47646332
Mg 2.65869692 11.03799964 19.09330408 0.02763130 0.04039747 -0.25106411 -1.48442841
Mg 1.75315409 11.13108317 14.66401846 -0.32922125 -0.03849021 -0.51755331 -1.44044876
Mg 5.80484290 11.28561522 18.43644413 -0.07274096 -0.47551838 -0.37349670 -1.45103073
Mg 2.05018444 11.30854414 22.38215905 0.13120014 -0.17857004 -0.20122664 -1.45312119
Mg 0.64253024 18.98337574 17.05635517 -0.25303721 0.18031205 -0.53539912 -1.41630173
Mg 4.54894580 0.03044664 20.76836800 -0.21772140 -0.16389339 0.19486024 -1.48432541
Mg 1.22233899 0.06656024 24.42070263 0.07348189 -0.25530939 0.21564743 -1.31339645
Mg 0.30331788 12.68387518 20.22121424 -0.34206801 0.26161326 0.14947513 -1.46821594
Mg 4.18564094 12.87897560 24.16975061 0.12485305 0.05788866 -0.14801216 -1.24626923
Mg 6.81475808 11.36975095 22.68804187 -0.28868268 -0.17959965 0.21754267 -1.38117218
Mg 0.11796679 16.03438947 20.44845542 0.13908857 -0.09171957 -0.27098307 -1.45826721
Mg 4.45524303 16.10976048 24.21016915 -0.05253171 0.07419226 -0.25973300 -1.15916061
Mg 6.80493706 14.62024445 22.71759624 -0.40077841 -0.42477198 -0.11667266 -1.38219452
Mg 0.19098644 19.16811448 20.27609485 0.05504396 -0.03215618 0.11199075 -1.47767639
Mg 4.16583767 0.29043159 24.04984570 0.12593952 -0.44999284 0.05493888 -1.24835968
Mg 6.60669258 17.75189797 22.61355811 -0.28725248 -0.31044059 0.08492542 -1.38142776
Mg 11.63475796 15.87076733 13.42082084 0.21035605 -0.21288668 0.04693863 -1.33796692
Mg 14.93051804 16.00353828 12.92723220 -0.45538038 -0.28864712 -0.32251244 -1.21236801
Mg 11.08687794 15.88659560 16.61839030 0.49648620 0.21573636 -0.27507481 -1.45631790
Mg 9.67187025 14.25567125 11.52819647 0.16966166 0.11432541 0.10078081 -1.25372314
Mg 13.79440056 14.26541403 15.28535388 -0.17536938 0.06543229 0.15376578 -1.48973083
Mg 10.18265021 14.42057803 18.99489809 -0.08530623 0.01812089 0.22317893 -1.48062897
Mg 9.19930859 14.30143393 14.73246476 0.32771060 -0.09518764 -0.38217682 -1.46493149
Mg 13.40089010 14.48974800 18.49872719 -0.33338577 -0.43154462 -0.57595713 -1.40084076
Mg 9.84590449 14.19598724 22.19371440 -0.23445944 0.05843433 -0.10485269 -1.46166611
Mg 8.28867041 12.83538993 17.10997794 -0.21069324 -0.23733547 0.09284692 -1.48186493
Mg 12.22253657 12.94667401 20.77020197 -0.09549933 -0.51051510 0.17890675 -1.47028732
Mg 8.71242708 12.70560614 24.63223274 -0.24887594 0.22633353 0.08851676 -1.14286041
Mg 11.69722728 18.94498014 13.32975579 0.09318652 0.12064204 0.02160436 -1.33062363
Mg 14.74051513 19.06107697 12.61946061 -0.16615481 0.12771286 -0.07029501 -1.27493668
Mg 10.98795643 0.16452366 16.35913904 0.29316491 -0.72460926 -0.29143179 -1.39304352
Mg 9.74837767 17.35326131 11.39764468 0.07075024 0.16273385 0.12857538 -1.36364365
Mg 13.72020364 17.45881255 15.23586894 -0.32289114 0.19644933 0.40880404 -1.46538544
Mg 9.94530771 17.66128140 19.03566830 0.53156332 -0.09511849 -0.17722530 -1.46876144
Mg 9.15105033 17.39621723 14.57189990 0.18284559 0.07885310 -0.05386142 -1.48470688
Mg 13.32641171 17.35147052 18.56733031 -0.53675911 0.61276860 -0.35702846 -1.38961411
Mg 9.56455171 17.34252735 22.02176907 0.03112804 -0.01175020 0.41868778 -1.47965622
Mg 8.10666270 16.08122858 17.14908298 -0.28177757 -0.58001474 -0.11215765 -1.43461609
Mg 12.24051239 16.06094974 20.99469528 -0.53930004 -0.27136879 -0.30024310 -1.41653061
Mg 8.27102807 15.87853771 24.86989605 0.30753522 0.26256230 -0.25666859 -1.13150406
Mg 11.82785372 12.60593226 13.24940499 -0.01542669 0.27110670 0.06439883 -1.35751343
Mg 14.89671430 12.87148801 12.65772992 -0.11702898 -0.35122559 0.18451311 -1.29958725
Mg 11.47980467 12.51009242 16.49238725 -0.32907820 0.85400468 -0.09970376 -1.44248199
Mg 9.78900280 11.30518576 11.37458830 -0.04861416 -0.44087271 0.09406494 -1.28619003
Mg 13.75140871 11.00886147 15.01870933 0.54400501 0.24156855 0.04302292 -1.46317291
Mg 10.15459480 11.21329216 18.99307651 0.23782853 0.19750107 0.12751835 -1.45813370
Mg 9.53504032 11.08990073 14.56564300 -0.44407338 0.00958457 -0.12958949 -1.49629593
Mg 13.54365448 11.41487147 18.25335886 -0.14419671 -0.49809798 0.19205594 -1.45345306
Mg 9.84075251 11.00728747 22.11331961 -0.37482278 0.29062430 -0.07169596 -1.44541550
Mg 7.82017581 18.92641950 17.07099870 0.49400109 0.42702374 -0.18196315 -1.41551971
Mg 12.04854882 19.17484491 21.00598271 0.10314640 -0.07107582 -0.27667371 -1.48489380
Mg 8.12002687 0.05684585 24.73312755 0.08676794 -0.11966191 0.42115253 -1.64797592
Mg 7.59581363 12.87833378 20.21245851 0.44252757 -0.06373067 0.04085945 -1.46303558
Mg 11.54941670 12.31087704 24.18978602 0.47984963 0.65709919 -0.05049252 -1.21133804
Mg 14.10854672 11.12907861 22.73388064 0.04976532 -0.13286036 -0.10525465 -1.38525391
Mg 7.39997368 15.91685200 20.04831912 0.59086449 0.18034029 0.29094519 -1.42917252
Mg 11.70482887 15.85614479 23.91572251 -0.29032897 -0.23189622 0.13651621 -1.49069977
Mg 14.09252464 14.10161623 22.76619152 0.19860242 0.35420769 0.53009924 -1.38047028
Mg 7.63612482 19.11404210 20.16342366 -0.05505689 0.09113941 0.00827255 -1.46184921
Mg 11.63524381 18.97913728 24.09140665 -0.29737165 0.16095471 -0.00590374 -1.21355057
Mg 13.96324419 17.44806480 22.78861940 0.64615799 0.20239253 0.41192582 -1.38118744
Mg 19.37119118 15.85719360 12.93249423 -0.13501585 -0.01228828 0.29108159 -1.33382416
Mg 22.56927849 15.94282134 12.54002862 -0.24408374 -0.18616475 0.17549425 -1.31077957
Mg 18.98002335 16.00571648 16.59960164 -0.43927971 -0.12500835 -0.37951290 -1.44713593
Mg 17.12581170 14.29800652 11.49505613 0.19569764 0.30670708 0.10493982 -1.51616287
Mg 21.26330657 14.27228090 14.94958000 0.16554616 0.22006331 0.30085373 -1.45197678
Mg 17.82998138 14.44681099 19.08281537 -0.11475293 -0.27482434 -0.12292124 -1.49362946
Mg 16.81382577 14.48216599 14.70151214 0.33707989 -0.04908826 -0.24205432 -1.46244431
Mg 20.88666919 14.42626709 18.38777543 0.18149641 -0.28186996 -0.11856101 -1.48989868
Mg 17.49804686 14.36435388 22.25151366 -0.43000950 -0.13783522 0.14495996 -1.45459366
Mg 15.94149326 12.77464768 17.06829023 -0.25587409 0.10860058 -0.06730331 -1.46274567
Mg 19.75851494 12.85633336 20.90291845 0.05292142 -0.39093131 -0.17518032 -1.45203400
Mg 16.26919476 12.55598948 24.81462375 0.00186020 0.06848769 -0.21895705 -1.22021103
Mg 19.22917992 18.86789291 13.22206203 -0.14884418 0.33356352 0.00129695 -1.32564926
Mg 22.25322566 19.19221304 12.60848196 0.06044140 -0.46603271 0.06762991 -1.34581757
Mg 18.58095850 0.02433071 16.28915656 0.25416915 -0.02175583 0.30973056 -1.47205734
Mg 16.95914199 17.44617906 11.25300973 0.32516870 -0.13321180 0.10394823 -1.19959641
Mg 21.10570834 17.47708661 15.19997421 0.35609591 0.07717637 -0.18947515 -1.44718933
Mg 17.78360609 17.53830565 19.02380229 -0.03485734 0.17227071 0.33638387 -1.46501923
Mg 16.68751276 17.63409853 14.61016120 0.38171335 -0.28296517 -0.04103016 -1.42631531
Mg 20.79393415 17.51135446 18.48535969 0.23647155 0.06226445 -0.24258656 -1.46180344
Mg 17.17306816 17.40920254 22.31309460 0.11519764 -0.02950138 -0.31841160 -1.45490646
Mg 15.80293865 16.06292870 17.40656142 0.00240985 -0.45846573 -0.54905317 -1.45441437
Mg 19.82609231 15.82649380 20.96248076 -0.18185147 0.62380495 0.19025732 -1.44685745
Mg 16.38319661 15.74243327 24.89950985 -0.24289318 0.00516461 -0.19997555 -1.19018555
Mg 19.31013515 12.69384844 13.12079568 -0.15319452 0.07791567 0.19477021 -1.33999634
Mg 22.22844639 12.45842932 12.76693437 0.50371804 0.39717178 -0.29040641 -1.20086288
Mg 18.87090235 12.84202539 16.26010660 0.23806301 0.00128850 0.35758114 -1.46297455
Mg 17.38483910 11.33597769 11.32013588 -0.18166292 -0.54996667 0.08658255 -1.37598038
Mg 21.24865709 11.06520572 15.22660986 0.22787367 0.28975682 -0.06018323 -1.41401672
Mg 17.72024503 11.11310529 18.80701653 0.17143005 0.17695587 0.22510589 -1.45524979
Mg 17.01934905 11.10074849 14.50610746 -0.49975036 0.24500367 -0.18008159 -1.47178268
Mg 20.73986638 11.05130068 18.44560544 0.28360602 0.35697984 -0.13099963 -1.46628571
Mg 17.39426740 11.18403936 22.11410064 -0.12898089 0.07680420 0.24135920 -1.45122147
Mg 15.56780228 18.97112017 17.25396019 0.00501492 0.76526581 -0.13239949 -1.44043732
Mg 19.80765204 19.12469477 20.93267799 -0.20399545 -0.11889723 -0.09973013 -1.46097565
Mg 16.13721611 19.01369333 24.67032238 -0.24967881 -0.10311712 0.31612606 -1.14785004
Mg 15.30679688 12.83840906 20.21974057 0.39734651 -0.39905968 0.15849838 -1.43306732
Mg 19.39373278 12.83032066 24.15536223 -0.11706591 -0.05079488 0.01062021 -1.27018356
Mg 21.54012306 11.16473443 22.68248873 0.19056444 -0.19538121 0.34529700 -1.41742325
Mg 15.16626572 15.67248557 20.45761164 0.57483582 0.71104501 0.10791813 -1.40685272
Mg 19.34968388 16.16733130 24.19028506 0.03000835 -0.24534456 -0.09830370 -1.16267776
Mg 21.74778251 14.31962011 22.76843417 0.15347593 0.13338721 0.17994393 -1.41299057
Mg 15.16975117 18.88901921 20.36868501 0.11170650 0.21120881 -0.01160779 -1.47198486
Mg 19.19380306 0.06434984 23.79872045 0.01541060 -0.08368473 0.48421144 -1.15210342
Mg 21.78519916 17.69279593 23.11967664 -0.04751711 -0.48724244 -0.42833773 -1.34589005
O 4.39766396 4.46434768 28.86996844 -0.37441926 0.02875358 -0.11226614 -10.46792984
H 5.30718912 4.68533230 28.50963397 -0.21281946 0.27085637 0.07406824 -2.15249634
H 3.74136978 5.17041598 28.56490159 0.93150246 -0.40094793 0.07694672 -2.14493942
O 3.75817090 6.70767516 39.69782604 1.14009133 0.29119263 1.31853831 -10.54222107
H 2.81030617 6.55072152 39.49521012 -0.67239594 -0.02474516 -0.17685474 -2.11177444
H 3.79137791 6.94517102 40.68890236 0.10621298 -0.06857929 -1.14905314 -2.11947632
O 5.19716475 1.88847942 35.27603397 -1.10401299 0.14397564 -1.41560774 -10.66244888
H 4.46172295 1.89156787 35.91524037 0.11949721 0.04834616 0.56174609 -1.96672440
H 5.97919347 1.61626381 35.76208073 1.23048173 -0.04999160 0.85248835 -2.04499435
O 1.15383692 7.01777346 34.69422869 0.15509520 0.21145529 0.23197660 -10.43820190
H 0.73946342 6.54705492 33.89684545 0.06174547 0.28006141 0.39770518 -2.18878937
H 2.11800732 7.13648987 34.45825268 -0.52229386 -0.12044943 -0.37876032 -2.08238220
O 20.01453728 0.88957893 28.44893167 -1.04674701 0.24146835 0.10457860 -10.58402252
H 20.26186970 1.41231807 29.23247955 -0.12954355 0.58015432 0.55277771 -2.05488205
H 20.80419261 0.36842395 28.37659745 1.22884494 -0.96824619 -0.63037102 -1.86254883
O 22.60635427 5.72354868 32.75854061 1.53633054 3.10672986 -0.39414920 -10.62619400
H 21.72180654 6.01111200 32.54418122 -1.59396133 0.23554583 -0.39810942 -2.02118683
H 0.00984517 4.82421975 32.93530560 -0.20423365 -3.59018387 0.37010482 -1.86803818
O 0.03364512 17.91081586 37.66700762 1.23737021 0.68143982 0.11388858 -10.65983200
H 0.30518082 18.71561159 38.19850423 -0.57838451 -0.07660268 0.56413525 -2.04415512
H 0.76923786 18.01492458 37.01731547 -0.09656402 -0.72670422 -0.29629660 -1.88077545
O 21.71588719 8.99206984 27.73873037 0.91381691 -1.11259368 0.38695084 -10.33163071
H 21.87753692 9.20608308 26.80577014 0.48594320 -0.20956259 -0.83530307 -1.72253036
H 21.00774832 9.59479568 27.93172085 -1.41342744 1.27008744 0.77543404 -2.04061508
O 0.23631167 2.67343226 32.54893248 0.52743047 -0.20841479 -0.04691072 -10.52083588
H 0.06440294 2.01045505 33.29483659 0.39406628 0.12095377 -0.36303246 -2.17039871
H 1.09250272 2.41460409 32.10003540 -0.73510680 0.31878491 0.56727631 -1.93740845
O 4.08021736 1.71417752 37.83473481 -1.01573998 0.11751727 -0.13585701 -10.62202072
H 3.15753941 1.95882476 37.53592198 0.15892375 -0.38933334 -0.08003878 -2.05316162
H 4.41724018 2.55856132 38.17763973 0.55108742 0.83634323 -0.00715146 -1.94263840
O 4.19950804 1.83631124 28.17043156 0.66805257 0.40307675 1.14848310 -10.51350021
H 4.40995258 2.79119130 28.44451264 -0.71399431 -0.12852288 -0.26669867 -2.13778687
H 3.79301517 1.89356158 27.30564235 -0.54729408 0.03295940 -1.15176959 -1.79336548
O 0.16452347 4.76589267 36.74034483 -0.27342720 -0.95356400 0.05020446 -10.58506012
H 0.21279068 5.44621513 36.05386656 0.39245704 0.57044974 -0.23705628 -1.95223999
H 0.38923904 5.17111272 37.60389768 0.24191628 0.39417355 0.05374857 -2.04092789
O 22.58599281 0.84165008 34.54844830 -0.75356957 -1.71116889 0.11152165 -10.60054779
H 21.62188396 0.79013242 34.88311751 0.79337585 0.52430583 0.12534714 -2.07133484
H 0.09114680 19.05868609 34.31406057 0.15399704 1.08999448 -0.16168318 -2.02517319
O 1.19777497 7.93335829 29.37002845 -1.74414888 0.77716629 -0.84598684 -10.42145920
H 0.50251430 8.34913488 28.76242465 0.62118752 -0.22349665 1.10823849 -2.10014343
H 1.68215260 7.38451807 28.70744682 0.67649095 0.00727311 0.43222724 -2.10998917
O 3.44520890 0.36969528 30.43900964 -0.39967974 0.96684453 -0.01255123 -10.49850464
H 3.75313608 0.75775841 29.56165885 -0.29097995 -0.38240162 0.67429268 -2.11955643
H 3.11570148 1.20304153 30.91052986 0.65786461 -0.72880304 -0.53500042 -2.03646851
O 5.20283790 4.41892781 38.81461241 -0.11301308 0.47901455 0.03967103 -10.70192719
H 5.62091472 4.74253795 37.98570761 0.50787933 -0.16359641 -0.47846248 -2.01926041
H 4.72858112 5.26530098 39.05383115 -0.29878724 -0.38593952 0.57348398 -2.07246780
O 5.72503027 7.65667083 37.88527233 -0.29430398 0.04185396 0.09215261 -10.62898636
H 6.41975619 8.29077696 38.18148591 -0.21764656 0.13962701 0.19867813 -2.04889679
H 5.12191491 7.45296040 38.64189099 0.23283858 -0.06042112 0.17457335 -2.04384613
O 7.11779201 3.81194343 40.81883013 -2.78484367 2.11738265 0.47581160 -10.58187103
H 6.45103154 4.07160974 40.08134049 0.63269746 -0.49722389 0.66856018 -2.08625412
H 7.72841253 3.20444418 40.44743708 1.45027288 -1.54477191 -1.43866260 -1.94460678
O 20.98177919 2.33868283 30.71639799 -0.75429343 1.15220338 1.12789883 -10.48518753
H 20.31204111 3.04639740 30.99117685 0.33665518 -0.67147942 -0.36686838 -2.03252411
H 21.66920083 2.52074363 31.44651233 0.17999899 -0.39108144 -0.60450283 -2.16889572
O 20.11823201 6.89787031 31.87121063 0.42850349 0.08349544 -0.66319874 -10.47548294
H 20.28303589 7.85389099 32.13238084 -0.39507876 -0.64073086 0.37730501 -2.11433029
H 20.25907302 6.90758760 30.87524649 -0.15826506 0.02548533 0.44730903 -2.12976837
O 3.10445383 6.84888128 28.06490887 0.37367564 -0.30938238 -1.19952875 -10.38908768
H 3.78992963 7.54330862 28.34155649 -0.08274895 -0.10079829 0.23490612 -2.17046738
H 3.06052568 6.98277866 27.08127027 -0.08030434 -0.34403996 0.36240028 -1.75642014
O 4.77312950 8.57784247 29.00920481 0.58333123 -0.40622695 0.73013121 -10.65456009
H 4.26765693 8.79611110 29.86257848 0.19021009 0.13643770 -0.45429782 -2.12534714
H 5.61827467 8.09900990 29.28219349 -0.64345771 0.33861601 0.03720650 -2.01958084
O 4.42171133 18.33293729 34.71809030 0.44629836 -0.60987742 -0.13920072 -10.58329010
H 5.33916661 17.93714515 34.81766207 -0.54712703 0.73781855 0.02976218 -2.01910019
H 4.53903837 0.10714367 34.66000116 0.43729132 0.31570052 0.27220681 -2.01369476
O 5.86942162 6.63707978 34.45951544 -1.17358261 0.67628112 1.16332723 -10.51009750
H 6.36792382 6.38352969 33.69059867 1.45082610 -0.43614291 -1.40840109 -1.96799088
H 5.98448264 7.66431580 34.60277665 -0.07863690 -0.30956323 -0.29748094 -2.15534592
O 2.83047224 17.67829267 32.66893981 -0.31650841 0.02126409 -3.24327214 -10.53627396
H 3.45467929 17.98537404 33.35039451 0.61609198 0.49177756 0.55862102 -2.11316681
H 2.97858055 18.16713402 31.75980171 0.09081089 -0.49995699 2.01809658 -2.07805634
O 6.63088642 1.16605785 28.69643587 -1.28024694 -0.09467267 -0.15760124 -10.53405380
H 5.71993659 1.38917196 28.31648407 -0.05452517 -0.65522024 0.47494988 -2.10185242
H 7.05023931 2.02796326 28.56029146 1.12102115 0.48680850 0.22951214 -1.92163086
O 1.44007055 1.95314145 36.74374192 -0.01105812 -0.29142944 -0.28279862 -10.62394714
H 0.88714530 2.75360044 36.64761674 0.11044648 0.50492927 0.17411107 -1.99807739
H 1.04180893 1.34968307 36.06129417 0.14649962 0.19489411 0.06036364 -2.00522995